# vtk DataFile Version 2.0
TetWild Mesh
ASCII
DATASET UNSTRUCTURED_GRID
POINTS 11528 double
210 260 77.000053410000007
-210 260 77.000053410000007
210 -260 77.000053410000007
-210 -260 77.000053410000007
210 -260 -63.800006869999997
-210 -260 -63.800006869999997
210 260 -63.800006869999997
-210 260 -63.800006869999997
-38.428802490000002 112.97782135 9.0999946600000001
-86.571014399999996 112.97782135 9.0999946600000001
-92.173553470000002 106.00016022 9.0999946600000001
-91.507026670000002 117.91383362000001 9.0999946600000001
-98.498832699999994 112.32543182000001 9.0999946600000001
-91.507026670000002 164.67012023999999 9.0999946600000001
-98.498832699999994 171.67272948999999 9.0999946600000001
-85.185089110000007 170.99206543 9.0999946600000001
-92.173553470000002 177.99800110000001 9.0999946600000001
-39.814731600000002 170.99206543 9.0999946600000001
-32.826263429999997 177.99800110000001 9.0999946600000001
-26.500989910000001 171.67272948999999 9.0999946600000001
-32.826263429999997 106.00016022 9.0999946600000001
-33.492790220000003 117.91383362000001 9.0999946600000001
-26.500989910000001 112.32543182000001 9.0999946600000001
-33.492790220000003 164.67012023999999 9.0999946600000001
-98.498832699999994 112.32543182000001 8.0999946600000001
-98.498832699999994 171.67272948999999 8.0999946600000001
-92.173553470000002 106.00016022 8.0999946600000001
-92.173553470000002 177.99800110000001 8.0999946600000001
-32.826263429999997 106.00016022 8.0999946600000001
-32.826263429999997 177.99800110000001 8.0999946600000001
-26.500989910000001 112.32543182000001 8.0999946600000001
-26.500989910000001 171.67272948999999 8.0999946600000001
-38.246135709999997 -18.463178630000002 9.0999946600000001
-86.753685000000004 -18.463178630000002 9.0999946600000001
-92.173553470000002 -24.999837880000001 9.0999946600000001
-91.948028559999997 -13.26883507 9.0999946600000001
-98.498832699999994 -18.67456627 9.0999946600000001
-91.948028559999997 33.852787020000001 9.0999946600000001
-98.498832699999994 40.672729490000002 9.0999946600000001
-85.367759699999993 40.43305969 9.0999946600000001
-92.173553470000002 46.998001100000003 9.0999946600000001
-39.632064819999997 40.43305969 9.0999946600000001
-32.826263429999997 46.998001100000003 9.0999946600000001
-26.500989910000001 40.672729490000002 9.0999946600000001
-32.826263429999997 -24.999837880000001 9.0999946600000001
-33.051792140000003 -13.26883507 9.0999946600000001
-26.500989910000001 -18.67456627 9.0999946600000001
-33.051792140000003 33.852787020000001 9.0999946600000001
-98.498832699999994 -18.67456627 8.0999946600000001
-98.498832699999994 40.672729490000002 8.0999946600000001
-92.173553470000002 -24.999837880000001 8.0999946600000001
-92.173553470000002 46.998001100000003 8.0999946600000001
-32.826263429999997 -24.999837880000001 8.0999946600000001
-32.826263429999997 46.998001100000003 8.0999946600000001
-26.500989910000001 -18.67456627 8.0999946600000001
-26.500989910000001 40.672729490000002 8.0999946600000001
93.253868100000005 -18.463178630000002 9.0999946600000001
44.746315000000003 -18.463178630000002 9.0999946600000001
39.326442720000003 -24.999837880000001 9.0999946600000001
39.551971440000003 -13.26883507 9.0999946600000001
33.001171110000001 -18.67456627 9.0999946600000001
39.551971440000003 33.852787020000001 9.0999946600000001
33.001171110000001 40.672729490000002 9.0999946600000001
46.132244110000002 40.43305969 9.0999946600000001
39.326442720000003 46.998001100000003 9.0999946600000001
91.867935180000003 40.43305969 9.0999946600000001
98.673736570000003 46.998001100000003 9.0999946600000001
104.99900818 40.672729490000002 9.0999946600000001
98.673736570000003 -24.999837880000001 9.0999946600000001
98.448211670000006 -13.26883507 9.0999946600000001
104.99900818 -18.67456627 9.0999946600000001
98.448211670000006 33.852787020000001 9.0999946600000001
33.001171110000001 -18.67456627 8.0999946600000001
33.001171110000001 40.672729490000002 8.0999946600000001
39.326442720000003 -24.999837880000001 8.0999946600000001
39.326442720000003 46.998001100000003 8.0999946600000001
98.673736570000003 -24.999837880000001 8.0999946600000001
98.673736570000003 46.998001100000003 8.0999946600000001
104.99900818 -18.67456627 8.0999946600000001
104.99900818 40.672729490000002 8.0999946600000001
93.071197510000005 112.97782135 9.0999946600000001
44.928981780000001 112.97782135 9.0999946600000001
39.326442720000003 106.00016022 9.0999946600000001
39.992973329999998 117.91383362000001 9.0999946600000001
33.001171110000001 112.32543182000001 9.0999946600000001
39.992973329999998 164.67012023999999 9.0999946600000001
33.001171110000001 171.67272948999999 9.0999946600000001
46.314914700000003 170.99206543 9.0999946600000001
39.326442720000003 177.99800110000001 9.0999946600000001
91.685272220000002 170.99206543 9.0999946600000001
104.99900818 177.99800110000001 9.0999946600000001
98.007209779999997 164.67012023999999 9.0999946600000001
104.99900818 112.32543182000001 9.0999946600000001
98.007209779999997 117.91383362000001 9.0999946600000001
98.673736570000003 106.00016022 9.0999946600000001
104.99900818 177.99800110000001 8.0999946600000001
104.99900818 112.32543182000001 8.0999946600000001
39.326442720000003 177.99800110000001 8.0999946600000001
98.673736570000003 106.00016022 8.0999946600000001
39.326442720000003 106.00016022 8.0999946600000001
33.001171110000001 112.32543182000001 8.0999946600000001
33.001171110000001 171.67272948999999 8.0999946600000001
43.750068659999997 85.699974060000002 -2.2000050500000001
43.750068659999997 85.699974060000002 -3.3000049599999999
44.185485839999998 84.074974060000002 -2.2000050500000001
44.370765689999999 83.789672850000002 -3.3000049599999999
45.375068659999997 82.885391240000004 -2.2000050500000001
45.995765689999999 82.60903931 -3.3000049599999999
47.000068659999997 82.449974060000002 -2.2000050500000001
48.004375459999999 82.60903931 -3.3000049599999999
48.625068659999997 82.885391240000004 -2.2000050500000001
49.629375459999999 83.789672850000002 -3.3000049599999999
49.814651490000003 84.074974060000002 -2.2000050500000001
50.250068659999997 85.699974060000002 -3.3000049599999999
50.250068659999997 85.699974060000002 -2.2000050500000001
50.250068659999997 86.699974060000002 -0.20000498999999999
50.250068659999997 86.699974060000002 0.099995000000000001
49.987125399999996 86.699974060000002 -0.20000498999999999
49.987125399999996 86.699974060000002 0.099995000000000001
48.000068659999997 88.687026979999999 0.099995000000000001
48.000068659999997 88.687026979999999 -0.20000498999999999
48.859138489999999 88.242874150000006 0.099995000000000001
48.859138489999999 88.242874150000006 -0.20000498999999999
49.542976379999999 87.559036250000005 -0.20000498999999999
49.542976379999999 87.559036250000005 0.099995000000000001
48.000068659999997 88.949974060000002 -0.20000498999999999
48.000068659999997 88.949974060000002 0.099995000000000001
49.416675570000002 88.949974060000002 -0.20000498999999999
49.416675570000002 88.949974060000002 0.099995000000000001
50.250064850000001 88.116584779999997 0.099995000000000001
50.250064850000001 88.116584779999997 -0.20000498999999999
49.999794010000002 88.421028140000004 0.099995000000000001
49.999794010000002 88.421028140000004 -0.20000498999999999
49.721118930000003 88.6996994 0.099995000000000001
49.721118930000003 88.6996994 -0.20000498999999999
46.000068659999997 88.687026979999999 -0.20000498999999999
46.255336759999999 87.992019650000003 -0.20000498999999999
47.744800570000002 87.992019650000003 -0.20000498999999999
46.000068659999997 88.949974060000002 -0.20000498999999999
45.141002659999998 88.242874150000006 -0.20000498999999999
45.050338750000002 87.116531370000004 -0.20000498999999999
44.457164759999998 87.559036250000005 -0.20000498999999999
44.013015750000001 86.699974060000002 -0.20000498999999999
44.590068819999999 85.699974060000002 -0.20000498999999999
43.750068659999997 86.699974060000002 -0.20000498999999999
43.750068659999997 84.699974060000002 -0.20000498999999999
44.013015750000001 84.699974060000002 -0.20000498999999999
45.050338750000002 84.283409120000002 -0.20000498999999999
44.457164759999998 83.84090424 -0.20000498999999999
45.141002659999998 83.157066349999994 -0.20000498999999999
46.255336759999999 83.407928470000002 -0.20000498999999999
46.000068659999997 82.712913510000007 -0.20000498999999999
48.000068659999997 82.712913510000007 -0.20000498999999999
46.000068659999997 82.449974060000002 -0.20000498999999999
48.000068659999997 82.449974060000002 -0.20000498999999999
47.744800570000002 83.407928470000002 -0.20000498999999999
48.859138489999999 83.157066349999994 -0.20000498999999999
48.94979858 84.283409120000002 -0.20000498999999999
49.542972560000003 83.84090424 -0.20000498999999999
49.987125399999996 84.699974060000002 -0.20000498999999999
49.410068510000002 85.699974060000002 -0.20000498999999999
50.250068659999997 84.699974060000002 -0.20000498999999999
48.94979858 87.116531370000004 -0.20000498999999999
48.000068659999997 82.449974060000002 0.099995000000000001
48.000068659999997 82.712913510000007 0.099995000000000001
49.987125399999996 84.699974060000002 0.099995000000000001
49.542972560000003 83.84090424 0.099995000000000001
48.859138489999999 83.157066349999994 0.099995000000000001
50.250068659999997 84.699974060000002 0.099995000000000001
50.250068659999997 83.283363339999994 -0.20000498999999999
50.250068659999997 83.283363339999994 0.099995000000000001
49.416694640000003 82.449974060000002 0.099995000000000001
49.416694640000003 82.449974060000002 -0.20000498999999999
49.721130369999997 82.700248720000005 0.099995000000000001
49.721130369999997 82.700248720000005 -0.20000498999999999
49.999801640000001 82.97892761 0.099995000000000001
49.999801640000001 82.97892761 -0.20000498999999999
50.250068659999997 88.949974060000002 -0.20000498999999999
43.750068659999997 84.699974060000002 0.099995000000000001
[...]
CELL_DATA 27900
SCALARS GeoID int 1
LOOKUP_TABLE default
187311
187311
187361
187361
187345
187345
187336
187336
187325
187325
187354
187354
139482
139482
139482
139482
139482
139482
139482
139482
139482
139482
139482
139482
139482
139482
139482
139482
139384
139384
139384
139384
139384
139384
139410
139410
139475
139475
139466
139466
139457
139457
139448
139448
139439
139439
139430
139430
139421
139421
139517
139517
139517
139517
139517
139517
139628
139628
139628
139628
139628
139628
139628
139628
139628
139628
139628
139628
139628
139628
139628
139628
139530
139530
139530
139530
139530
139530
139556
139556
139621
139621
139612
139612
139603
139603
139594
139594
139585
139585
139576
139576
139567
139567
139663
139663
139663
139663
139663
139663
139774
139774
139774
139774
139774
139774
139774
139774
139774
139774
139774
139774
139774
139774
139774
139774
139676
139676
139676
139676
139676
139676
139702
139702
139767
139767
139758
139758
139749
139749
139740
139740
139731
139731
139722
139722
139713
139713
139809
139809
139809
139809
139809
139809
139908
139908
139908
139908
139908
139908
139908
139908
139908
139908
139908
139908
139908
139908
139908
139822
139822
139822
139822
139822
139883
139883
139874
139874
139865
139865
139856
139856
139845
139845
139901
139901
139892
139892
139942
139942
139942
139942
139942
139942
186936
186936
186936
186936
186936
186936
186936
186936
186936
186936
186936
187040
187040
187029
187029
187029
187029
187029
187029
187099
187099
186918
186918
186909
186909
186909
186909
186909
186909
186898
186898
187181
187181
187181
187181
187181
187181
187181
187181
187181
187181
187181
187181
187181
187181
187181
187181
187181
187181
187181
187181
187181
187181
187181
187181
187181
187181
187181
187181
187181
187181
187181
187181
187181
187181
187222
187222
187211
187211
187211
187211
187211
187211
187231
187231
187289
187289
187302
187302
187302
187302
187302
187302
187269
187269
187114
187114
187114
187114
187067
187067
187058
187058
187058
187058
187058
187058
187047
187047
187174
187174
186985
186985
186985
186985
186985
186985
186971
186971
187296
187296
187296
187092
187092
187083
187083
187083
187083
187083
187083
187074
187074
186962
186962
186818
186818
186818
186818
186818
186818
186927
186927
187168
187168
187168
186884
186884
186884
186884
186884
186884
186884
186884
186884
186884
186884
187137
187137
187137
187145
187145
187145
186946
186946
186946
187106
187106
187106
186954
186954
186954
187255
187255
187255
187255
187255
187255
187255
187240
187240
187240
187240
187240
187240
187123
187123
187123
187123
187123
187123
187123
187153
187153
187153
187153
187153
187153
187153
148712
148712
148712
148712
148712
148712
148712
148712
148712
148712
148712
149128
149128
149081
149081
149081
149081
149081
149081
149092
149092
149101
149101
149110
149110
149110
149110
149110
149110
149119
149119
149055
149055
149055
149055
149055
149055
149055
149055
149055
149055
149055
149055
149055
149055
149055
149055
149055
149055
149055
149055
149055
149055
149055
149055
149055
149055
149055
149055
149055
149055
149055
149055
149055
149055
148990
148990
148999
148999
148999
148999
148999
148999
149008
149008
148837
148837
148667
148667
148667
148667
148667
148667
148811
148811
149046
149046
149046
149046
148952
148952
148961
148961
148961
148961
148961
148961
148970
148970
148786
148786
148653
148653
148653
148653
148653
148653
148760
148760
148846
148846
148846
148913
148913
148922
148922
148922
148922
148922
148922
148931
148931
148751
148751
148698
148698
148698
148698
148698
148698
148870
148870
148795
148795
148795
148681
148681
148681
148681
148681
148681
148681
148681
148681
148681
148681
148854
148854
148854
148803
148803
148803
148887
148887
148887
148879
148879
148879
148862
148862
148862
148977
148977
148977
148977
148977
148977
148977
149015
149015
149015
149015
149015
149015
149030
149030
149030
149030
149030
149030
149030
148938
148938
148938
148938
148938
148938
148938
148492
148492
148492
148492
148492
148492
148492
148492
148492
148492
148492
148492
148492
148492
148492
148492
148492
148492
148492
148492
148492
148492
148492
148492
148492
148492
148492
148492
148492
148492
148492
148492
148492
148492
148492
148492
148492
148492
148492
148492
148492
148492
148492
148492
148492
148492
148492
148492
148492
148492
148492
148492
148492
148492
148492
148492
148492
148492
148492
148492
148492
148492
148492
148492
148492
148492
148492
148492
148492
148492
148492
148492
148492
148492
148492
148492
148492
148492
148492
148492
148492
148492
148492
148492
148492
148492
148492
148492
148492
148492
148492
148492
148492
148492
148492
148492
148492
148492
148492
148492
148492
148492
148492
148492
148492
148492
148492
148492
148492
148492
148492
148492
148492
148492
148492
148492
148492
148492
148492
148492
148492
148492
148492
148492
148492
148492
148492
148492
148492
148492
148492
148492
148492
148492
148492
148492
148492
148492
148492
148492
148492
148492
148492
148492
148492
148492
148492
148492
148492
148492
148492
148492
148492
148492
148492
148492
148492
148492
148492
148492
148492
148492
148492
148492
148492
148492
148492
148492
148492
148492
148492
148492
148492
148492
148492
148492
148492
148492
148492
148492
148492
148492
148492
148492
148492
148492
148492
148492
148492
148492
148492
148492
148492
148492
148492
148492
148492
148492
148492
148492
148492
148492
148492
148492
148492
148492
148492
148492
148492
148492
148492
148492
148492
148492
148492
148492
148492
148492
148492
148492
148492
148492
148492
148492
148492
148492
148492
148492
148492
148492
148492
148492
148492
148492
148492
148492
148492
148492
148492
148492
148492
148492
148492
148492
148492
148492
148492
148492
148492
148492
148492
148492
148492
148492
148492
148492
148492
148492
148492
148492
148492
148492
148492
148492
148492
148492
148492
148492
148492
148492
148492
148492
148492
148492
148492
148492
148492
148492
148492
148492
148492
148492
148492
148492
148492
148492
148492
148492
148492
148492
148492
148492
148492
148492
148492
148492
148492
148492
148492
148492
148492
148492
148492
148492
148492
148492
148492
148492
148492
148492
148492
148492
148492
148492
148492
148492
148492
148492
148492
148492
148492
148492
148492
148492
148492
148492
148180
148180
148180
148180
148180
148180
148180
148180
148160
148160
148160
148160
148160
148160
148160
148160
148140
148140
148140
148140
148140
148140
148140
148140
148120
148120
148120
148120
148120
148120
148120
148120
148100
148100
148100
148100
148100
148100
148100
148100
148080
148080
148080
148080
148080
148080
148080
148080
148060
148060
148060
148060
148060
148060
148060
148060
186832
186832
186832
186832
186832
186832
186832
186832
186832
186832
186832
186832
186832
186832
186832
186832
186832
186832
186832
186832
188858
188858
188858
188858
188858
188858
188858
188858
188858
188858
188869
188869
188869
188869
188869
188869
188869
188869
188869
188869
188339
188339
188339
188339
188339
188339
188339
188339
148723
148723
148723
148723
148723
148723
148723
148723
148723
148723
148723
148723
148723
148723
148723
148723
148723
148723
148723
148723
188876
188876
188876
188876
188876
188876
188876
188876
188876
188876
188887
188887
188887
188887
188887
188887
188887
188887
188887
188887
188347
188347
188347
188347
188347
188347
188347
188347
190381
190381
189445
189445
191215
191215
190445
190445
190445
190445
190445
190445
190445
190445
190445
190445
190445
190445
190445
190445
190445
190445
190445
190445
190445
190445
190445
190445
190445
190445
190445
190445
190445
190445
190445
190445
190445
190445
190445
190445
190445
190445
190445
190445
190445
190445
190445
190445
190445
190445
190445
190445
190445
190445
190445
190445
190445
190445
190445
190445
190445
190445
190445
190445
190445
190445
190445
190445
190445
190445
190445
190445
190445
190445
190445
190445
190445
190445
190445
190445
190445
190445
190445
190445
190445
190445
190445
190445
190445
190445
190445
190445
190445
190445
190445
190445
190445
190445
190445
190445
190445
190445
190445
190445
190445
190445
190445
190445
190445
190445
190445
190445
190445
190445
190445
190445
190445
190445
190445
190445
190445
190445
190445
190445
190445
190445
190445
190445
190445
190445
190445
190445
190445
190445
190445
190445
190445
190445
190445
190445
190445
190445
190445
190445
190445
190445
190445
190445
190445
190445
190445
190445
190445
190445
190445
190445
190445
190445
190445
190445
190445
190445
190445
190445
190445
190445
190445
190445
190445
190445
190445
190445
190445
190445
190445
190445
190445
190445
190445
190445
190445
190445
190445
190445
190445
190445
190445
190445
190445
190445
190445
190445
190445
190445
190445
190445
190445
190445
190445
190445
190445
190445
190445
190445
190445
190445
190445
190445
190445
190445
190445
190445
190445
190445
190445
190445
190445
190445
190445
190445
190445
190445
190445
190445
190445
190445
190445
190445
190445
190445
190445
190445
190445
190445
190445
190445
190445
190445
190445
190445
190445
190445
190445
190445
190445
190445
190445
190445
190372
190372
190363
190363
190354
190354
190345
190345
190336
190336
190327
190327
190318
190318
190309
190309
190300
190300
190291
190291
190282
190282
190273
190273
190264
190264
190255
190255
190246
190246
190237
190237
190228
190228
190219
190219
190210
190210
190201
190201
190192
190192
190183
190183
190174
190174
190165
190165
190156
190156
190147
190147
190138
190138
190129
190129
190120
190120
190111
190111
190102
190102
190093
190093
190084
190084
190075
190075
190066
190066
190057
190057
190048
190048
190039
190039
190030
190030
190021
190021
190012
190012
190003
190003
189994
189994
189985
189985
189976
189976
189967
189967
189958
189958
189940
189940
189931
189931
189922
189922
189913
189913
189904
189904
189895
189895
189886
189886
189877
189877
189868
189868
189859
189859
189850
189850
189841
189841
189832
189832
189823
189823
189814
189814
189805
189805
189796
189796
189787
189787
189778
189778
189769
189769
189760
189760
189751
189751
189742
189742
189733
189733
189724
189724
189715
189715
189706
189706
189697
189697
189688
189688
189679
189679
189670
189670
189661
189661
189652
189652
189643
189643
189634
189634
189625
189625
189616
189616
189607
189607
189598
189598
189589
189589
189580
189580
189571
189571
189562
189562
189553
189553
189544
189544
189535
189535
189526
189526
189517
189517
189508
189508
189499
189499
189490
189490
189481
189481
189472
189472
189463
189463
189454
189454
189436
189436
189427
189427
189418
189418
189409
189409
189400
189400
189391
189391
189382
189382
189373
189373
189364
189364
189355
189355
189346
189346
189337
189337
189328
189328
189319
189319
189310
189310
189301
189301
189292
189292
189283
189283
189274
189274
189265
189265
189256
189256
189247
189247
189238
189238
189229
189229
189220
189220
189211
189211
189202
189202
189193
189193
189184
189184
189175
189175
189166
189166
189157
189157
189148
189148
189139
189139
189130
189130
189121
189121
189112
189112
189103
189103
189094
189094
189085
189085
189076
189076
189067
189067
189058
189058
189049
189049
189040
189040
189031
189031
189022
189022
189013
189013
189004
189004
188995
188995
188986
188986
188977
188977
188968
188968
188959
188959
188950
188950
188941
188941
188932
188932
188923
188923
188914
188914
188905
188905
188894
188894
190390
190390
191638
191638
190970
190970
190981
190981
190990
190990
190999
190999
191008
191008
191017
191017
191026
191026
191035
191035
191044
191044
191053
191053
191062
191062
191071
191071
191080
191080
191089
191089
191098
191098
191107
191107
191116
191116
191125
191125
191134
191134
191143
191143
191152
191152
191161
191161
191170
191170
191179
191179
191188
191188
191197
191197
191206
191206
191224
191224
191233
191233
191242
191242
191251
191251
191260
191260
191269
191269
191278
191278
191287
191287
191296
191296
191305
191305
191314
191314
191323
191323
191332
191332
191341
191341
191350
191350
191359
191359
191368
191368
191377
191377
191386
191386
191395
191395
191404
191404
191413
191413
191422
191422
191431
191431
191440
191440
191449
191449
191458
191458
191467
191467
191476
191476
191485
191485
191494
191494
191503
191503
191512
191512
191521
191521
191530
191530
191539
191539
191548
191548
191557
191557
191566
191566
191575
191575
191584
191584
191593
191593
191602
191602
191611
191611
191620
191620
191629
191629
189949
189949
191645
191645
191645
191645
191645
191645
191645
191645
191645
191645
191645
191645
191645
191645
191645
191645
191645
191645
191645
191645
191645
191645
191645
191645
191645
191645
191645
191645
191645
191645
191645
191645
191645
192146
192146
192146
192146
192146
192146
192146
192146
192146
192146
192146
192146
192146
192146
192146
192146
140006
140006
140006
140006
140006
140006
140006
140006
192191
192191
192182
192182
192173
192173
192164
192164
192155
192155
192137
192137
192137
192137
192137
192137
192137
192137
192137
192137
192137
192137
192137
192137
192137
192137
192128
192128
192117
192117
191677
191677
191677
191677
191677
191677
191677
191677
191677
191677
191677
191677
191677
191677
191677
191677
191677
191677
191677
191677
191677
191677
191677
191677
191677
191677
191677
191677
191677
191677
191677
191677
191677
192236
192236
192236
192236
192236
192236
192236
192236
192236
192236
192236
192236
192236
192236
192236
192236
139955
139955
139955
139955
139955
139955
139955
139955
192272
192272
192263
192263
192254
192254
192245
192245
192245
192245
192245
192245
192245
192245
192245
192245
192245
192245
192245
192245
192245
192245
192227
192227
192218
192218
192209
192209
192198
192198
140014
140014
140014
140014
140014
140014
140014
140014
140014
140014
242155
242155
242155
242155
242155
242155
242155
242155
242155
242155
139974
139974
139974
139974
139974
139974
139974
139974
139974
139974
242260
242260
242260
242260
242260
242260
242260
242260
242260
242260
147882
147882
147882
147882
147882
147882
147882
147882
147882
147882
147882
147882
147882
147882
147882
147882
147882
147882
147882
147882
147882
147882
147882
147882
147882
147882
147882
147882
147882
147882
147882
147882
147882
147882
147882
147882
147882
147882
147882
147882
147882
147882
147882
147882
147882
147882
147882
147882
147882
147882
147882
147882
147882
147882
147882
147882
147882
147882
147882
147882
147882
147882
147882
147882
147882
147882
147882
147882
147882
147882
147882
147882
147882
147882
147882
147882
147882
147882
147882
147882
147882
147882
147882
147882
147882
147882
147882
147882
147882
147882
147882
147371
147371
147371
147371
147371
147371
147371
147371
147371
147371
147371
147371
147371
147371
147371
147371
147371
147371
147371
147371
147371
147371
147371
147371
147371
147371
147371
147371
147371
147371
147371
147371
147371
147371
147371
147371
147371
147371
147371
147371
147371
147371
147371
147371
147371
147371
147371
147371
147371
147371
147371
147371
147371
147371
147371
147371
147371
147371
147371
147371
147371
147371
147371
147371
147371
147371
147371
147371
147371
147371
147371
147371
147371
147371
147371
147371
147371
147371
147371
147371
147371
147371
147371
147371
147371
147371
147371
147371
147371
147371
147371
147371
147371
147371
147371
147371
147371
147371
147371
147371
147371
147371
147371
147371
147371
147371
147371
147371
147371
147371
147371
147371
147371
147371
147371
147371
147371
147371
147371
147371
147371
147371
147371
147371
147371
147371
147371
147371
147371
147371
147371
147371
147371
147371
147371
147371
147371
147371
147371
147371
147371
147371
147371
147371
147371
147371
147371
147371
147371
147371
147371
147371
147371
147371
147371
147371
147371
147371
147371
147371
147371
147371
147371
147371
147371
147371
147371
147371
147371
147371
147371
147371
147371
147371
147371
147371
147371
147371
147371
147371
147371
147371
147371
147371
147371
147371
147371
147371
147371
147371
147371
147371
147371
147371
147371
147371
147371
147371
147371
147371
147371
147371
147371
147371
147371
147371
147371
147371
147371
147371
147371
147371
147371
147371
147371
147371
147371
147371
147371
147371
147371
147371
147371
147371
147371
147371
147371
147371
147371
147371
147371
147371
147371
147371
147371
147371
147371
147371
147371
147371
147371
147371
147371
147371
147371
147371
147371
147371
147371
147371
147371
147371
147371
147371
147371
147371
147371
147371
147371
147371
147371
147371
147371
147371
147371
147371
147371
147371
147371
147371
147371
147371
147371
147371
147371
147371
147371
147371
147371
147371
147371
147371
147371
147371
147371
147371
147371
147371
147371
147371
147984
147984
147984
147984
147984
147984
147984
147984
147984
147984
147984
147984
147984
147984
147984
147984
147984
147984
147984
147984
147984
147984
147984
147984
147984
147984
147984
147984
147984
147984
147984
147984
147984
147984
147984
147984
147984
147984
147984
147984
147984
147984
147984
147984
147984
147984
147984
147984
147984
147984
147984
147984
147984
147984
147984
147984
147984
148022
148022
148022
148022
148022
148022
148022
148022
148022
148022
148022
148022
148022
148022
148022
148022
148022
148022
148022
148022
148022
148022
148022
148022
148022
148022
148022
148022
148022
148022
148022
148022
148022
148022
148022
148022
148022
148022
148022
148022
148022
148022
148022
148022
148022
148022
148022
148022
148022
148022
148022
148022
148022
148022
148022
148022
148022
146868
146868
146868
146868
146868
146868
146868
146868
146868
146868
146868
146868
146868
146868
146868
146868
146868
146868
146868
146868
146868
146868
146868
146868
146868
146868
146868
146868
146868
146868
146868
146868
146868
146868
146868
146868
146868
146868
146868
146868
146868
146868
146868
146868
146868
146868
146868
146868
146868
146868
146868
146868
146868
146868
146868
146868
146868
146868
146868
146868
146868
146868
146868
146868
146868
146868
146868
146868
146868
146868
146868
146868
146868
146868
146868
146868
146868
146868
146868
146868
146868
146868
146868
146868
146868
146868
146868
146868
146868
146868
146868
146868
146868
146868
146868
146868
146868
146868
146868
146868
146868
146868
146868
146868
146868
146868
146868
146868
146868
146868
146868
146868
146868
146868
146868
146868
146868
146868
146868
146868
146868
146868
146868
146868
146868
146868
146868
146868
146868
146868
146868
146868
146868
146868
146868
146868
146868
146868
146868
146868
146868
146868
146868
146868
146868
146868
146868
146868
146868
146868
146868
146868
146868
146868
146868
146868
146868
146868
146868
146868
146868
146868
146868
146868
146868
148456
148456
148456
148456
148456
148456
148456
148456
148456
148456
148456
148456
148456
148456
148456
148456
148456
148456
148456
148456
148456
148456
148456
148456
148456
148456
148456
148456
148456
148456
148456
148456
148456
148456
148456
148456
148456
148456
148456
148420
148420
148420
148420
148420
148420
148420
148420
148420
148420
148420
148420
148420
148420
148420
148420
148420
148420
148420
148420
148420
148420
148420
148420
148420
148420
148420
148420
148420
148420
148420
148420
148420
148420
148420
148420
148420
148420
148420
148394
148394
148394
148394
148394
148394
148394
148394
148394
148394
148394
148394
148394
148394
148368
148368
148368
148368
148368
148368
148368
148368
148368
148368
148368
148368
148368
148368
148360
148360
148360
148360
148360
148360
148360
148360
148352
148352
148352
148352
148352
148352
148352
148352
148344
148344
148344
148344
148344
148344
148344
148344
148336
148336
148336
148336
148336
148336
148336
148336
148328
148328
148328
148328
148328
148328
148328
148328
148320
148320
148320
148320
148320
148320
148320
148320
148312
148312
148312
148312
148312
148312
148312
148312
148304
148304
148304
148304
148304
148304
148304
148304
148296
148296
148296
148296
148296
148296
148296
148296
148288
148288
148288
148288
148288
148288
148288
148288
148272
148272
148272
148272
148272
148272
148272
148272
148280
148280
148280
148280
148280
148280
148280
148280
148200
148200
148200
148200
148200
148200
148211
148211
148220